data_global
_chemical_name_mineral 'Ringwoodite'
loop_
_publ_author_name
'Smyth J R'
'Holl C M'
'Frost D J'
'Jacobsen S D'
'Langenhorst F'
'McCammon C A'
_journal_name_full 'American Mineralogist'
_journal_volume 88 
_journal_year 2003
_journal_page_first 1402
_journal_page_last 1407
_publ_section_title
;
 Structural systematics of hydrous ringwoodite and water in Earth's interior
 Sample: Ringby4
;
_database_code_amcsd 0003158
_chemical_formula_sum 'Si Mg1.996 O4'
_cell_length_a 8.0633
_cell_length_b 8.0633
_cell_length_c 8.0633
_cell_angle_alpha 90
_cell_angle_beta 90
_cell_angle_gamma 90
_cell_volume 524.250
_exptl_crystal_density_diffrn      3.563
_symmetry_space_group_name_H-M 'F d 3 m'
loop_
_space_group_symop_operation_xyz
  'x,y,z'
  'x,1/2+y,1/2+z'
  '1/2+x,y,1/2+z'
  '1/2+x,1/2+y,z'
  '3/4+z,1/2-x,1/4+y'
  '3/4+z,-x,3/4+y'
  '1/4+z,1/2-x,3/4+y'
  '1/4+z,-x,1/4+y'
  '3/4-y,1/2+z,1/4-x'
  '3/4-y,+z,3/4-x'
  '1/4-y,1/2+z,3/4-x'
  '1/4-y,+z,1/4-x'
  '3/4+x,1/2-y,1/4+z'
  '3/4+x,-y,3/4+z'
  '1/4+x,1/2-y,3/4+z'
  '1/4+x,-y,1/4+z'
  '3/4-z,1/2+x,1/4-y'
  '3/4-z,+x,3/4-y'
  '1/4-z,1/2+x,3/4-y'
  '1/4-z,+x,1/4-y'
  '3/4+y,1/2-z,1/4+x'
  '3/4+y,-z,3/4+x'
  '1/4+y,1/2-z,3/4+x'
  '1/4+y,-z,1/4+x'
  '3/4-x,1/2+y,1/4-z'
  '3/4-x,+y,3/4-z'
  '1/4-x,1/2+y,3/4-z'
  '1/4-x,+y,1/4-z'
  '1/2+x,3/4-z,1/4-y'
  '1/2+x,1/4-z,3/4-y'
  '+x,3/4-z,3/4-y'
  '+x,1/4-z,1/4-y'
  '1/2-z,3/4+y,1/4+x'
  '1/2-z,1/4+y,3/4+x'
  '-z,3/4+y,3/4+x'
  '-z,1/4+y,1/4+x'
  '1/2+y,3/4-x,1/4-z'
  '1/2+y,1/4-x,3/4-z'
  '+y,3/4-x,3/4-z'
  '+y,1/4-x,1/4-z'
  '1/2-x,3/4+z,1/4+y'
  '1/2-x,1/4+z,3/4+y'
  '-x,3/4+z,3/4+y'
  '-x,1/4+z,1/4+y'
  '1/2+z,3/4-y,1/4-x'
  '1/2+z,1/4-y,3/4-x'
  '+z,3/4-y,3/4-x'
  '+z,1/4-y,1/4-x'
  '1/2-y,3/4+x,1/4+z'
  '1/2-y,1/4+x,3/4+z'
  '-y,3/4+x,3/4+z'
  '-y,1/4+x,1/4+z'
  'x,1/2+z,1/2+y'
  'x,+z,+y'
  '1/2+x,1/2+z,+y'
  '1/2+x,+z,1/2+y'
  '-z,1/2-y,1/2-x'
  '-z,-y,-x'
  '1/2-z,1/2-y,-x'
  '1/2-z,-y,1/2-x'
  'y,1/2+x,1/2+z'
  'y,+x,+z'
  '1/2+y,1/2+x,+z'
  '1/2+y,+x,1/2+z'
  '-x,1/2-z,1/2-y'
  '-x,-z,-y'
  '1/2-x,1/2-z,-y'
  '1/2-x,-z,1/2-y'
  'z,1/2+y,1/2+x'
  'z,+y,+x'
  '1/2+z,1/2+y,+x'
  '1/2+z,+y,1/2+x'
  '-y,1/2-x,1/2-z'
  '-y,-x,-z'
  '1/2-y,1/2-x,-z'
  '1/2-y,-x,1/2-z'
  '3/4+z,1/4+x,1/2-y'
  '3/4+z,3/4+x,-y'
  '1/4+z,1/4+x,-y'
  '1/4+z,3/4+x,1/2-y'
  '3/4-y,1/4-z,1/2+x'
  '3/4-y,3/4-z,+x'
  '1/4-y,1/4-z,+x'
  '1/4-y,3/4-z,1/2+x'
  '3/4+x,1/4+y,1/2-z'
  '3/4+x,3/4+y,-z'
  '1/4+x,1/4+y,-z'
  '1/4+x,3/4+y,1/2-z'
  '3/4-z,1/4-x,1/2+y'
  '3/4-z,3/4-x,+y'
  '1/4-z,1/4-x,+y'
  '1/4-z,3/4-x,1/2+y'
  '3/4+y,1/4+z,1/2-x'
  '3/4+y,3/4+z,-x'
  '1/4+y,1/4+z,-x'
  '1/4+y,3/4+z,1/2-x'
  '3/4-x,1/4-y,1/2+z'
  '3/4-x,3/4-y,+z'
  '1/4-x,1/4-y,+z'
  '1/4-x,3/4-y,1/2+z'
  '-z,3/4+x,3/4+y'
  '-z,1/4+x,1/4+y'
  '1/2-z,3/4+x,1/4+y'
  '1/2-z,1/4+x,3/4+y'
  'y,3/4-z,3/4-x'
  'y,1/4-z,1/4-x'
  '1/2+y,3/4-z,1/4-x'
  '1/2+y,1/4-z,3/4-x'
  '-x,3/4+y,3/4+z'
  '-x,1/4+y,1/4+z'
  '1/2-x,3/4+y,1/4+z'
  '1/2-x,1/4+y,3/4+z'
  'z,3/4-x,3/4-y'
  'z,1/4-x,1/4-y'
  '1/2+z,3/4-x,1/4-y'
  '1/2+z,1/4-x,3/4-y'
  '-y,3/4+z,3/4+x'
  '-y,1/4+z,1/4+x'
  '1/2-y,3/4+z,1/4+x'
  '1/2-y,1/4+z,3/4+x'
  'x,3/4-y,3/4-z'
  'x,1/4-y,1/4-z'
  '1/2+x,3/4-y,1/4-z'
  '1/2+x,1/4-y,3/4-z'
  '1/4-x,1/2+z,3/4-y'
  '1/4-x,+z,1/4-y'
  '3/4-x,1/2+z,1/4-y'
  '3/4-x,+z,3/4-y'
  '1/4+z,1/2-y,3/4+x'
  '1/4+z,-y,1/4+x'
  '3/4+z,1/2-y,1/4+x'
  '3/4+z,-y,3/4+x'
  '1/4-y,1/2+x,3/4-z'
  '1/4-y,+x,1/4-z'
  '3/4-y,1/2+x,1/4-z'
  '3/4-y,+x,3/4-z'
  '1/4+x,1/2-z,3/4+y'
  '1/4+x,-z,1/4+y'
  '3/4+x,1/2-z,1/4+y'
  '3/4+x,-z,3/4+y'
  '1/4-z,1/2+y,3/4-x'
  '1/4-z,+y,1/4-x'
  '3/4-z,1/2+y,1/4-x'
  '3/4-z,+y,3/4-x'
  '1/4+y,1/2-x,3/4+z'
  '1/4+y,-x,1/4+z'
  '3/4+y,1/2-x,1/4+z'
  '3/4+y,-x,3/4+z'
  '3/4-x,3/4-z,y'
  '3/4-x,1/4-z,1/2+y'
  '1/4-x,3/4-z,1/2+y'
  '1/4-x,1/4-z,y'
  '3/4+z,3/4+y,-x'
  '3/4+z,1/4+y,1/2-x'
  '1/4+z,3/4+y,1/2-x'
  '1/4+z,1/4+y,-x'
  '3/4-y,3/4-x,z'
  '3/4-y,1/4-x,1/2+z'
  '1/4-y,3/4-x,1/2+z'
  '1/4-y,1/4-x,z'
  '3/4+x,3/4+z,-y'
  '3/4+x,1/4+z,1/2-y'
  '1/4+x,3/4+z,1/2-y'
  '1/4+x,1/4+z,-y'
  '3/4-z,3/4-y,x'
  '3/4-z,1/4-y,1/2+x'
  '1/4-z,3/4-y,1/2+x'
  '1/4-z,1/4-y,x'
  '3/4+y,3/4+x,-z'
  '3/4+y,1/4+x,1/2-z'
  '1/4+y,3/4+x,1/2-z'
  '1/4+y,1/4+x,-z'
  '-z,-x,-y'
  '-z,1/2-x,1/2-y'
  '1/2-z,-x,1/2-y'
  '1/2-z,1/2-x,-y'
  'y,z,x'
  'y,1/2+z,1/2+x'
  '1/2+y,z,1/2+x'
  '1/2+y,1/2+z,x'
  '-x,-y,-z'
  '-x,1/2-y,1/2-z'
  '1/2-x,-y,1/2-z'
  '1/2-x,1/2-y,-z'
  'z,x,y'
  'z,1/2+x,1/2+y'
  '1/2+z,x,1/2+y'
  '1/2+z,1/2+x,y'
  '-y,-z,-x'
  '-y,1/2-z,1/2-x'
  '1/2-y,-z,1/2-x'
  '1/2-y,1/2-z,-x'
loop_
_atom_site_label
_atom_site_fract_x
_atom_site_fract_y
_atom_site_fract_z
_atom_site_occupancy
SiTet   0.12500   0.12500   0.12500   1.00000
MgOct   0.50000   0.50000   0.50000   0.99800
O   0.24391   0.24391   0.24391   1.00000
loop_
_atom_site_aniso_label
_atom_site_aniso_U_11
_atom_site_aniso_U_22
_atom_site_aniso_U_33
_atom_site_aniso_U_12
_atom_site_aniso_U_13
_atom_site_aniso_U_23
SiTet 0.00426 0.00426 0.00426 0.00000 0.00000 0.00000
MgOct 0.00516 0.00516 0.00516 -0.00058 -0.00058 -0.00058
O 0.00459 0.00459 0.00459 -0.00044 -0.00044 -0.00044

